    2    2    1    1
  0.2001287E+02  0.3839590E-09  0.3839590E-09  0.3839590E-09  0.5000000E-15
  1.000000000000000E-004
  CAR 
 unknown system                          
      8    240     18
 
  0.0000000E+00  0.0000000E+00  0.0000000E+00  0.4166667E-02
    1       -6.129075   1.000000
    2       -6.129075   1.000000
    3        5.799400   0.999999
    4        5.799400   0.999999
    5        5.847106   0.999974
    6        5.847106   0.999974
    7        5.847106   0.999974
    8        5.847106   0.999974
    9        8.373246   0.000000
   10        8.373246   0.000000
   11        8.408126   0.000000
   12        8.408126   0.000000
   13        8.408126   0.000000
   14        8.408126   0.000000
   15        9.209677   0.000000
   16        9.209677   0.000000
   17       13.557314   0.000000
   18       13.583976   0.000000
 
  0.1282051E-01  0.0000000E+00  0.1282051E-01  0.4166667E-02
    1       -6.126202   1.000000
    2       -6.126202   1.000000
    3        5.784420   1.000000
    4        5.784420   1.000000
    5        5.829867   0.999991
    6        5.829867   0.999991
    7        5.834374   0.999988
    8        5.834374   0.999988
    9        8.377827   0.000000
   10        8.377827   0.000000
   11        8.412630   0.000000
   12        8.412630   0.000000
   13        8.424054   0.000000
   14        8.424054   0.000000
   15        9.229146   0.000000
   16        9.229146   0.000000
   17       13.532792   0.000000
   18       13.558812   0.000000
 
  0.2564103E-01  0.0000000E+00  0.2564103E-01  0.4166667E-02
    1       -6.117568   1.000000
    2       -6.117568   1.000000
    3        5.737093   1.000000
    4        5.737093   1.000000
    5        5.782857   1.000000
    6        5.782857   1.000000
    7        5.797161   0.999999
    8        5.797161   0.999999
    9        8.364840   0.000000
   10        8.364840   0.000000
   11        8.452108   0.000000
   12        8.452108   0.000000
   13        8.470907   0.000000
   14        8.470907   0.000000
   15        9.285932   0.000000
   16        9.285932   0.000000
   17       13.460415   0.000000
   18       13.484312   0.000000
 
  0.3846154E-01  0.0000000E+00  0.3846154E-01  0.4166667E-02
    1       -6.103182   1.000000
    2       -6.103182   1.000000
    3        5.652673   1.000000
    4        5.652673   1.000000
    5        5.717079   1.000000
    6        5.717079   1.000000
    7        5.738125   1.000000
    8        5.738125   1.000000
    9        8.331776   0.000000
   10        8.331776   0.000000
   11        8.527062   0.000000
   12        8.527062   0.000000
   13        8.546169   0.000000
   14        8.546169   0.000000
   15        9.375583   0.000000
   16        9.375583   0.000000
   17       13.348572   0.000000
   18       13.355276   0.000000
 
  0.5128205E-01  0.0000000E+00  0.5128205E-01  0.4166667E-02
    1       -6.083035   1.000000
    2       -6.083035   1.000000
    3        5.534434   1.000000
    4        5.534434   1.000000
    5        5.637827   1.000000
    6        5.637827   1.000000
    7        5.660901   1.000000
    8        5.660902   1.000000
    9        8.285059   0.000000
   10        8.285059   0.000000
   11        8.628476   0.000000
   12        8.628476   0.000000
   13        8.646382   0.000000
   14        8.646382   0.000000
   15        9.491766   0.000000
   16        9.491766   0.000000
   17       13.208131   0.000000
   18       13.216139   0.000000
 
  0.6410256E-01  0.0000000E+00  0.6410256E-01  0.4166667E-02
    1       -6.057135   1.000000
    2       -6.057135   1.000000
    3        5.390113   1.000000
    4        5.390113   1.000000
    5        5.546420   1.000000
    6        5.546420   1.000000
    7        5.569354   1.000000
    8        5.569354   1.000000
    9        8.226899   0.000000
   10        8.226900   0.000000
   11        8.751586   0.000000
   12        8.751587   0.000000
   13        8.767829   0.000000
   14        8.767829   0.000000
   15        9.627094   0.000000
   16        9.627094   0.000000
   17       13.046193   0.000000
   18       13.047847   0.000000
 
  0.7692308E-01  0.0000000E+00  0.7692308E-01  0.4166667E-02
    1       -6.025500   1.000000
    2       -6.025500   1.000000
    3        5.225864   1.000000
    4        5.225864   1.000000
    5        5.445099   1.000000
    6        5.445099   1.000000
    7        5.467065   1.000000
    8        5.467065   1.000000
    9        8.158979   0.000000
   10        8.158979   0.000000
   11        8.892556   0.000000
   12        8.892556   0.000000
   13        8.907001   0.000000
   14        8.907001   0.000000
   15        9.773433   0.000000
   16        9.773433   0.000000
   17       12.873779   0.000000
   18       12.873909   0.000000
 
  0.8974359E-01  0.0000000E+00  0.8974359E-01  0.4166667E-02
    1       -5.988149   1.000000
    2       -5.988149   1.000000
    3        5.046273   1.000000
    4        5.046273   1.000000
    5        5.336400   1.000000
    6        5.336400   1.000000
    7        5.357101   1.000000
    8        5.357101   1.000000
    9        8.082935   0.000000
   10        8.082935   0.000000
   11        9.048194   0.000000
   12        9.048194   0.000000
   13        9.060846   0.000000
   14        9.060847   0.000000
   15        9.921625   0.000000
   16        9.921625   0.000000
   17       12.701255   0.000000
   18       12.701332   0.000000
 
  0.1025641E+00  0.0000000E+00  0.1025641E+00  0.4166667E-02
    1       -5.945094   1.000000
    2       -5.945094   1.000000
    3        4.854882   1.000000
    4        4.854882   1.000000
    5        5.222627   1.000000
    6        5.222627   1.000000
    7        5.241985   1.000000
    8        5.241986   1.000000
    9        8.000346   0.000000
   10        8.000346   0.000000
   11        9.215914   0.000000
   12        9.215914   0.000000
   13        9.226844   0.000000
   14        9.226844   0.000000
   15       10.060649   0.000000
   16       10.060649   0.000000
   17       12.541406   0.000000
   18       12.541482   0.000000
 
  0.1153846E+00  0.0000000E+00  0.1153846E+00  0.4166667E-02
    1       -5.896342   1.000000
    2       -5.896342   1.000000
    3        4.654373   1.000000
    4        4.654373   1.000000
    5        5.105676   1.000000
    6        5.105676   1.000000
    7        5.123715   1.000000
    8        5.123715   1.000000
    9        7.912706   0.000000
   10        7.912706   0.000000
   11        9.393637   0.000000
   12        9.393637   0.000000
   13        9.402941   0.000000
   14        9.402941   0.000000
   15       10.176617   0.000000
   16       10.176618   0.000000
   17       12.409314   0.000000
   18       12.409317   0.000000
 
  0.1282051E+00  0.0000000E+00  0.1282051E+00  0.4166667E-02
    1       -5.841904   1.000000
    2       -5.841904   1.000000
    3        4.446800   1.000000
    4        4.446800   1.000000
    5        4.987088   1.000000
    6        4.987088   1.000000
    7        5.003871   1.000000
    8        5.003871   1.000000
    9        7.821395   0.000000
   10        7.821395   0.000000
   11        9.579713   0.000000
   12        9.579713   0.000000
   13        9.587489   0.000000
   14        9.587489   0.000000
   15       10.252981   0.000000
   16       10.252981   0.000000
   17       12.322578   0.000000
   18       12.322602   0.000000
 
  0.1410256E+00  0.0000000E+00  0.1410256E+00  0.4166667E-02
    1       -5.781815   1.000000
    2       -5.781815   1.000000
    3        4.233732   1.000000
    4        4.233732   1.000000
    5        4.868085   1.000000
    6        4.868085   1.000000
    7        4.883692   1.000000
    8        4.883692   1.000000
    9        7.727670   0.000000
   10        7.727670   0.000000
   11        9.772821   0.000000
   12        9.772821   0.000000
   13        9.779157   0.000000
   14        9.779157   0.000000
   15       10.274314   0.000000
   16       10.274314   0.000000
   17       12.297462   0.000000
   18       12.297465   0.000000
 
  0.1538462E+00  0.0000000E+00  0.1538462E+00  0.4166667E-02
    1       -5.716094   1.000000
    2       -5.716094   1.000000
    3        4.016364   1.000000
    4        4.016364   1.000000
    5        4.749647   1.000000
    6        4.749647   1.000000
    7        4.764163   1.000000
    8        4.764163   1.000000
    9        7.632641   0.000000
   10        7.632641   0.000000
   11        9.971919   0.000000
   12        9.971919   0.000000
   13        9.976835   0.000000
   14        9.976835   0.000000
   15       10.233844   0.000000
   16       10.233844   0.000000
   17       12.341496   0.000000
   18       12.341505   0.000000
 
  0.1666667E+00  0.0000000E+00  0.1666667E+00  0.4166667E-02
    1       -5.644760   1.000000
    2       -5.644760   1.000000
    3        3.795631   1.000000
    4        3.795631   1.000000
    5        4.632557   1.000000
    6        4.632557   1.000000
    7        4.646061   1.000000
    8        4.646061   1.000000
    9        7.537337   0.000000
   10        7.537337   0.000000
   11       10.135709   0.000000
   12       10.135709   0.000000
   13       10.176160   0.000000
   14       10.176160   0.000000
   15       10.181356   0.000000
   16       10.181356   0.000000
   17       12.449395   0.000000
   18       12.449424   0.000000
 
  0.1794872E+00  0.0000000E+00  0.1794872E+00  0.4166667E-02
    1       -5.567857   1.000000
    2       -5.567857   1.000000
    3        3.572257   1.000000
    4        3.572257   1.000000
    5        4.517445   1.000000
    6        4.517445   1.000000
    7        4.530014   1.000000
    8        4.530014   1.000000
    9        7.442620   0.000000
   10        7.442620   0.000000
   11        9.997943   0.000000
   12        9.997943   0.000000
   13       10.384851   0.000000
   14       10.384851   0.000000
   15       10.387770   0.000000
   16       10.387770   0.000000
   17       12.607788   0.000000
   18       12.607822   0.000000
 
  0.1923077E+00  0.0000000E+00  0.1923077E+00  0.4166667E-02
    1       -5.485408   1.000000
    2       -5.485408   1.000000
    3        3.346813   1.000000
    4        3.346813   1.000000
    5        4.404825   1.000000
    6        4.404825   1.000000
    7        4.416526   1.000000
    8        4.416526   1.000000
    9        7.349252   0.000000
   10        7.349252   0.000000
   11        9.831159   0.000000
   12        9.831159   0.000000
   13       10.597425   0.000000
   14       10.597425   0.000000
   15       10.599205   0.000000
   16       10.599205   0.000000
   17       12.802680   0.000000
   18       12.802693   0.000000
 
  0.2051282E+00  0.0000000E+00  0.2051282E+00  0.4166667E-02
    1       -5.397444   1.000000
    2       -5.397444   1.000000
    3        3.119752   1.000000
    4        3.119752   1.000000
    5        4.295108   1.000000
    6        4.295108   1.000000
    7        4.306001   1.000000
    8        4.306001   1.000000
    9        7.257928   0.000000
   10        7.257928   0.000000
   11        9.647534   0.000000
   12        9.647536   0.000000
   13       10.813418   0.000000
   14       10.813418   0.000000
   15       10.814172   0.000000
   16       10.814172   0.000000
   17       13.023083   0.000000
   18       13.023956   0.000000
 
  0.2179487E+00  0.0000000E+00  0.2179487E+00  0.4166667E-02
    1       -5.304000   1.000000
    2       -5.304000   1.000000
    3        2.891452   1.000000
    4        2.891452   1.000000
    5        4.188648   1.000000
    6        4.188648   1.000000
    7        4.198789   1.000000
    8        4.198789   1.000000
    9        7.169235   0.000000
   10        7.169236   0.000000
   11        9.454929   0.000000
   12        9.454930   0.000000
   13       11.032239   0.000000
   14       11.032239   0.000000
   15       11.032436   0.000000
   16       11.032436   0.000000
   17       13.261294   0.000000
   18       13.261296   0.000000
 
  0.2307692E+00  0.0000000E+00  0.2307692E+00  0.4166667E-02
    1       -5.205113   1.000000
    2       -5.205113   1.000000
    3        2.662226   1.000000
    4        2.662226   1.000000
    5        4.085734   1.000000
    6        4.085735   1.000000
    7        4.095173   1.000000
    8        4.095173   1.000000
    9        7.083697   0.000000
   10        7.083697   0.000000
   11        9.258624   0.000000
   12        9.258624   0.000000
   13       11.253070   0.000000
   14       11.253070   0.000000
   15       11.254156   0.000000
   16       11.254156   0.000000
   17       13.512087   0.000000
   18       13.512108   0.000000
 
  0.2435897E+00  0.0000000E+00  0.2435897E+00  0.4166667E-02
    1       -5.100826   1.000000
    2       -5.100826   1.000000
    3        2.432336   1.000000
    4        2.432336   1.000000
    5        3.986610   1.000000
    6        3.986610   1.000000
    7        3.995389   1.000000
    8        3.995389   1.000000
    9        7.001773   0.000000
   10        7.001773   0.000000
   11        9.062194   0.000000
   12        9.062194   0.000000
   13       11.476388   0.000000
   14       11.476388   0.000000
   15       11.478306   0.000000
   16       11.478306   0.000000
   17       13.771935   0.000000
   18       13.773319   0.000000
 
  0.2564103E+00  0.0000000E+00  0.2564103E+00  0.4166667E-02
    1       -4.991188   1.000000
    2       -4.991188   1.000000
    3        2.202023   1.000000
    4        2.202023   1.000000
    5        3.891480   1.000000
    6        3.891480   1.000000
    7        3.899638   1.000000
    8        3.899638   1.000000
    9        6.923868   0.000000
   10        6.923868   0.000000
   11        8.868099   0.000000
   12        8.868099   0.000000
   13       11.701953   0.000000
   14       11.701953   0.000000
   15       11.704652   0.000000
   16       11.704652   0.000000
   17       14.038014   0.000000
   18       14.040394   0.000000
 
  0.2692308E+00  0.0000000E+00  0.2692308E+00  0.4166667E-02
    1       -4.876268   1.000000
    2       -4.876268   1.000000
    3        1.971521   1.000000
    4        1.971521   1.000000
    5        3.800515   1.000000
    6        3.800515   1.000000
    7        3.808087   1.000000
    8        3.808087   1.000000
    9        6.850331   0.000000
   10        6.850331   0.000000
   11        8.678080   0.000000
   12        8.678080   0.000000
   13       11.929577   0.000000
   14       11.929577   0.000000
   15       11.933008   0.000000
   16       11.933008   0.000000
   17       14.308711   0.000000
   18       14.310554   0.000000
 
  0.2820513E+00  0.0000000E+00  0.2820513E+00  0.4166667E-02
    1       -4.756094   1.000000
    2       -4.756094   1.000000
    3        1.741049   1.000000
    4        1.741049   1.000000
    5        3.713875   1.000000
    6        3.713875   1.000000
    7        3.720892   1.000000
    8        3.720892   1.000000
    9        6.781513   0.000000
   10        6.781513   0.000000
   11        8.493384   0.000000
   12        8.493384   0.000000
   13       12.159117   0.000000
   14       12.159117   0.000000
   15       12.163232   0.000000
   16       12.163232   0.000000
   17       14.582558   0.000000
   18       14.598624   0.000000
 
  0.2948718E+00  0.0000000E+00  0.2948718E+00  0.4166667E-02
    1       -4.630725   1.000000
    2       -4.630725   1.000000
    3        1.510798   1.000000
    4        1.510798   1.000000
    5        3.631685   1.000000
    6        3.631685   1.000000
    7        3.638173   1.000000
    8        3.638173   1.000000
    9        6.717690   0.000000
   10        6.717690   0.000000
   11        8.314919   0.000000
   12        8.314920   0.000000
   13       12.390439   0.000000
   14       12.390439   0.000000
   15       12.395192   0.000000
   16       12.395193   0.000000
   17       14.857773   0.000000
   18       14.916596   0.000000
 
  0.3076923E+00  0.0000000E+00  0.3076923E+00  0.4166667E-02
    1       -4.500224   1.000000
    2       -4.500224   1.000000
    3        1.280965   1.000000
    4        1.280965   1.000000
    5        3.554056   1.000000
    6        3.554056   1.000000
    7        3.560041   1.000000
    8        3.560041   1.000000
    9        6.659124   0.000000
   10        6.659124   0.000000
   11        8.143353   0.000000
   12        8.143353   0.000000
   13       12.623436   0.000000
   14       12.623436   0.000000
   15       12.628783   0.000000
   16       12.628783   0.000000
   17       15.135116   0.000000
   18       15.146454   0.000000
 
  0.3205128E+00  0.0000000E+00  0.3205128E+00  0.4166667E-02
    1       -4.364653   1.000000
    2       -4.364653   1.000000
    3        1.051737   1.000000
    4        1.051737   1.000000
    5        3.481086   1.000000
    6        3.481086   1.000000
    7        3.486589   1.000000
    8        3.486589   1.000000
    9        6.606054   0.000000
   10        6.606054   0.000000
   11        7.979177   0.000000
   12        7.979177   0.000000
   13       12.858019   0.000000
   14       12.858025   0.000000
   15       12.863915   0.000000
   16       12.863924   0.000000
   17       15.416048   0.000000
   18       15.531304   0.000000
 
  0.3333333E+00  0.0000000E+00  0.3333333E+00  0.4166667E-02
    1       -4.224084   1.000000
    2       -4.224084   1.000000
    3        0.823311   1.000000
    4        0.823311   1.000000
    5        3.412860   1.000000
    6        3.412860   1.000000
    7        3.417899   1.000000
    8        3.417899   1.000000
    9        6.558699   0.000000
   10        6.558699   0.000000
   11        7.822752   0.000000
   12        7.822752   0.000000
   13       13.094114   0.000000
   14       13.094132   0.000000
   15       13.100509   0.000000
   16       13.100534   0.000000
   17       15.690390   0.000000
   18       15.694693   0.000000
 
  0.3461538E+00  0.0000000E+00  0.3461538E+00  0.4166667E-02
    1       -4.078597   1.000000
    2       -4.078597   1.000000
    3        0.595879   1.000000
    4        0.595879   1.000000
    5        3.349449   1.000000
    6        3.349449   1.000000
    7        3.354043   1.000000
    8        3.354043   1.000000
    9        6.517254   0.000000
   10        6.517254   0.000000
   11        7.674338   0.000000
   12        7.674338   0.000000
   13       13.331610   0.000000
   14       13.331612   0.000000
   15       13.338469   0.000000
   16       13.338469   0.000000
   17       15.865941   0.000000
   18       15.923744   0.000000
 
  0.3589744E+00  0.0000000E+00  0.3589744E+00  0.4166667E-02
    1       -3.928278   1.000000
    2       -3.928278   1.000000
    3        0.369665   1.000000
    4        0.369665   1.000000
    5        3.290920   1.000000
    6        3.290920   1.000000
    7        3.295083   1.000000
    8        3.295083   1.000000
    9        6.481920   0.000000
   10        6.481920   0.000000
   11        7.534116   0.000000
   12        7.534116   0.000000
   13       13.570466   0.000000
   14       13.570467   0.000000
   15       13.577739   0.000000
   16       13.577739   0.000000
   17       16.038827   0.000000
   18       16.068913   0.000000
 
  0.3717949E+00  0.0000000E+00  0.3717949E+00  0.4166667E-02
    1       -3.773199   1.000000
    2       -3.773199   1.000000
    3        0.144855   1.000000
    4        0.144855   1.000000
    5        3.237330   1.000000
    6        3.237330   1.000000
    7        3.241075   1.000000
    8        3.241075   1.000000
    9        6.452865   0.000003
   10        6.452865   0.000003
   11        7.402205   0.000000
   12        7.402205   0.000000
   13       13.810549   0.000000
   14       13.810552   0.000000
   15       13.818189   0.000000
   16       13.818190   0.000000
   17       16.219851   0.000000
   18       16.223618   0.000000
 
  0.3846154E+00  0.0000000E+00  0.3846154E+00  0.4166667E-02
    1       -3.613448   1.000000
    2       -3.613448   1.000000
    3       -0.078352   1.000000
    4       -0.078352   1.000000
    5        3.188726   1.000000
    6        3.188726   1.000000
    7        3.192066   1.000000
    8        3.192066   1.000000
    9        6.430254   0.000013
   10        6.430254   0.000013
   11        7.278674   0.000000
   12        7.278674   0.000000
   13       14.051711   0.000000
   14       14.051711   0.000000
   15       14.059668   0.000000
   16       14.059669   0.000000
   17       16.405448   0.000000
   18       16.408380   0.000000
 
  0.3974359E+00  0.0000000E+00  0.3974359E+00  0.4166667E-02
    1       -3.449107   1.000000
    2       -3.449107   1.000000
    3       -0.299757   1.000000
    4       -0.299756   1.000000
    5        3.145155   1.000000
    6        3.145155   1.000000
    7        3.148100   1.000000
    8        3.148100   1.000000
    9        6.414246   0.000035
   10        6.414246   0.000035
   11        7.163553   0.000000
   12        7.163553   0.000000
   13       14.293724   0.000000
   14       14.293734   0.000000
   15       14.301947   0.000000
   16       14.301965   0.000000
   17       16.601664   0.000000
   18       16.687270   0.000000
 
  0.4102564E+00  0.0000000E+00  0.4102564E+00  0.4166667E-02
    1       -3.280299   1.000000
    2       -3.280299   1.000000
    3       -0.519174   1.000000
    4       -0.519174   1.000000
    5        3.106647   1.000000
    6        3.106647   1.000000
    7        3.109206   1.000000
    8        3.109206   1.000000
    9        6.404989   0.000061
   10        6.404989   0.000061
   11        7.056844   0.000000
   12        7.056844   0.000000
   13       14.536225   0.000000
   14       14.536226   0.000000
   15       14.544653   0.000000
   16       14.544654   0.000000
   17       16.797681   0.000000
   18       16.888836   0.000000
 
  0.4230769E+00  0.0000000E+00  0.4230769E+00  0.4166667E-02
    1       -3.107127   1.000000
    2       -3.107127   1.000000
    3       -0.736400   1.000000
    4       -0.736400   1.000000
    5        3.073240   1.000000
    6        3.073240   1.000000
    7        3.075419   1.000000
    8        3.075419   1.000000
    9        6.402627   0.000070
   10        6.402627   0.000070
   11        6.958524   0.000000
   12        6.958524   0.000000
   13       14.778610   0.000000
   14       14.778611   0.000000
   15       14.787174   0.000000
   16       14.787174   0.000000
   17       17.000577   0.000000
   18       17.022322   0.000000
 
  0.4358974E+00  0.0000000E+00  0.4358974E+00  0.4166667E-02
    1       -2.929710   1.000000
    2       -2.929710   1.000000
    3       -0.951239   1.000000
    4       -0.951239   1.000000
    5        3.044954   1.000000
    6        3.044954   1.000000
    7        3.046760   1.000000
    8        3.046760   1.000000
    9        6.407301   0.000053
   10        6.407301   0.000053
   11        6.868518   0.000000
   12        6.868518   0.000000
   13       15.019816   0.000000
   14       15.019817   0.000000
   15       15.028421   0.000000
   16       15.028424   0.000000
   17       17.216514   0.000000
   18       17.231120   0.000000
 
  0.4487179E+00  0.0000000E+00  0.4487179E+00  0.4166667E-02
    1       -2.748167   1.000000
    2       -2.748167   1.000000
    3       -1.163503   1.000000
    4       -1.163503   1.000000
    5        3.021812   1.000000
    6        3.021812   1.000000
    7        3.023251   1.000000
    8        3.023251   1.000000
    9        6.419143   0.000026
   10        6.419143   0.000026
   11        6.786777   0.000000
   12        6.786777   0.000000
   13       15.257871   0.000000
   14       15.257950   0.000000
   15       15.266361   0.000000
   16       15.266372   0.000000
   17       17.478083   0.000000
   18       17.501152   0.000000
 
  0.4615385E+00  0.0000000E+00  0.4615385E+00  0.4166667E-02
    1       -2.562613   1.000000
    2       -2.562613   1.000000
    3       -1.373013   1.000000
    4       -1.373013   1.000000
    5        3.003835   1.000000
    6        3.003835   1.000000
    7        3.004911   1.000000
    8        3.004911   1.000000
    9        6.438285   0.000008
   10        6.438285   0.000008
   11        6.713223   0.000000
   12        6.713223   0.000000
   13       15.488612   0.000000
   14       15.488620   0.000000
   15       15.496761   0.000000
   16       15.496786   0.000000
   17       17.269425   0.000000
   18       17.275327   0.000000
 
  0.4743590E+00  0.0000000E+00  0.4743590E+00  0.4166667E-02
    1       -2.373182   1.000000
    2       -2.373182   1.000000
    3       -1.579588   1.000000
    4       -1.579588   1.000000
    5        2.991036   1.000000
    6        2.991036   1.000000
    7        2.991752   1.000000
    8        2.991752   1.000000
    9        6.464852   0.000001
   10        6.464852   0.000001
   11        6.647765   0.000000
   12        6.647765   0.000000
   13       15.702608   0.000000
   14       15.702620   0.000000
   15       15.709808   0.000000
   16       15.709861   0.000000
   17       17.051901   0.000000
   18       17.056339   0.000000
 
  0.4871795E+00  0.0000000E+00  0.4871795E+00  0.4166667E-02
    1       -2.180014   1.000000
    2       -2.180014   1.000000
    3       -1.783044   1.000000
    4       -1.783044   1.000000
    5        2.983425   1.000000
    6        2.983425   1.000000
    7        2.983783   1.000000
    8        2.983783   1.000000
    9        6.498966   0.000000
   10        6.498966   0.000000
   11        6.590307   0.000000
   12        6.590307   0.000000
   13       15.875192   0.000000
   14       15.875783   0.000000
   15       15.880155   0.000000
   16       15.880829   0.000000
   17       16.877226   0.000000
   18       16.878199   0.000000
 
  0.5000000E+00  0.0000000E+00  0.5000000E+00  0.4166667E-02
    1       -1.983257   1.000000
    2       -1.983257   1.000000
    3       -1.983257   1.000000
    4       -1.983257   1.000000
    5        2.981001   1.000000
    6        2.981001   1.000000
    7        2.981001   1.000000
    8        2.981001   1.000000
    9        6.540742   0.000000
   10        6.540742   0.000000
   11        6.540742   0.000000
   12        6.540742   0.000000
   13       15.950107   0.000000
   14       15.950107   0.000000
   15       15.950595   0.000000
   16       15.953247   0.000000
   17       16.805404   0.000000
   18       16.805411   0.000000
 
  0.5000000E+00  0.0000000E+00  0.5000000E+00  0.4166667E-02
    1       -1.983257   1.000000
    2       -1.983257   1.000000
    3       -1.983257   1.000000
    4       -1.983257   1.000000
    5        2.981001   1.000000
    6        2.981001   1.000000
    7        2.981001   1.000000
    8        2.981001   1.000000
    9        6.540742   0.000000
   10        6.540742   0.000000
   11        6.540742   0.000000
   12        6.540742   0.000000
   13       15.950107   0.000000
   14       15.950107   0.000000
   15       15.950608   0.000000
   16       15.954683   0.000000
   17       16.805407   0.000000
   18       16.805423   0.000000
 
  0.5032051E+00  0.6410256E-02  0.5032051E+00  0.4166667E-02
    1       -1.983402   1.000000
    2       -1.983402   1.000000
    3       -1.982851   1.000000
    4       -1.982850   1.000000
    5        2.978482   1.000000
    6        2.978482   1.000000
    7        2.981318   1.000000
    8        2.981318   1.000000
    9        6.541069   0.000000
   10        6.541069   0.000000
   11        6.544447   0.000000
   12        6.544447   0.000000
   13       15.945918   0.000000
   14       15.946802   0.000000
   15       15.948083   0.000000
   16       15.949112   0.000000
   17       16.799741   0.000000
   18       16.800399   0.000000
 
  0.5064103E+00  0.1282051E-01  0.5064103E+00  0.4166667E-02
    1       -1.983844   1.000000
    2       -1.983844   1.000000
    3       -1.981683   1.000000
    4       -1.981683   1.000000
    5        2.971006   1.000000
    6        2.971006   1.000000
    7        2.982184   1.000000
    8        2.982184   1.000000
    9        6.542069   0.000000
   10        6.542069   0.000000
   11        6.555486   0.000000
   12        6.555486   0.000000
   13       15.933444   0.000000
   14       15.934288   0.000000
   15       15.941733   0.000000
   16       15.942178   0.000000
   17       16.783172   0.000000
   18       16.786442   0.000000
 
  0.5096154E+00  0.1923077E-01  0.5096154E+00  0.4166667E-02
    1       -1.984585   1.000000
    2       -1.984584   1.000000
    3       -1.979737   1.000000
    4       -1.979737   1.000000
    5        2.958664   1.000000
    6        2.958664   1.000000
    7        2.983628   1.000000
    8        2.983628   1.000000
    9        6.543736   0.000000
   10        6.543736   0.000000
   11        6.573770   0.000000
   12        6.573770   0.000000
   13       15.912969   0.000000
   14       15.913451   0.000000
   15       15.930764   0.000000
   16       15.931568   0.000000
   17       16.754897   0.000000
   18       16.762764   0.000000
 
  0.5128205E+00  0.2564103E-01  0.5128205E+00  0.4166667E-02
    1       -1.985629   1.000000
    2       -1.985629   1.000000
    3       -1.977013   1.000000
    4       -1.977013   1.000000
    5        2.941625   1.000000
    6        2.941625   1.000000
    7        2.985648   1.000000
    8        2.985648   1.000000
    9        6.546070   0.000000
   10        6.546070   0.000000
   11        6.599136   0.000000
   12        6.599136   0.000000
   13       15.884831   0.000000
   14       15.886832   0.000000
   15       15.915837   0.000000
   16       15.916732   0.000000
   17       16.724760   0.000000
   18       16.731441   0.000000
 
  0.5160256E+00  0.3205128E-01  0.5160256E+00  0.4166667E-02
    1       -1.986986   1.000000
    2       -1.986986   1.000000
    3       -1.973511   1.000000
    4       -1.973511   1.000000
    5        2.920114   1.000000