   24   24    1    1
  0.1177586E+02  0.5542966E-09  0.9586352E-09  0.5639742E-09  0.5000000E-15
  1.000000000000000E-004
  CAR 
 Sr4RhO6                                 
    164    180    198
 
  0.0000000E+00  0.0000000E+00  0.0000000E+00  0.5555556E-02
    1      -19.268071   1.000000
    2      -19.268071   1.000000
    3      -19.260251   1.000000
    4      -19.260251   1.000000
    5      -19.253048   1.000000
    6      -19.253048   1.000000
    7      -19.238584   1.000000
    8      -19.238584   1.000000
    9      -19.224173   1.000000
   10      -19.224173   1.000000
   11      -19.209701   1.000000
   12      -19.209701   1.000000
   13      -19.106490   1.000000
   14      -19.106490   1.000000
   15      -19.097615   1.000000
   16      -19.097615   1.000000
   17      -19.086642   1.000000
   18      -19.086642   1.000000
   19      -19.076085   1.000000
   20      -19.076085   1.000000
   21      -19.059205   1.000000
   22      -19.059205   1.000000
   23      -19.047476   1.000000
   24      -19.047476   1.000000
   25      -19.032994   1.000000
   26      -19.032994   1.000000
   27      -19.032453   1.000000
   28      -19.032453   1.000000
   29      -19.029401   1.000000
   30      -19.029401   1.000000
   31      -19.022004   1.000000
   32      -19.022004   1.000000
   33      -19.003927   1.000000
   34      -19.003927   1.000000
   35      -18.984522   1.000000
   36      -18.984522   1.000000
   37      -18.476807   1.000000
   38      -18.476807   1.000000
   39      -18.473683   1.000000
   40      -18.473683   1.000000
   41      -18.311551   1.000000
   42      -18.311551   1.000000
   43      -18.307101   1.000000
   44      -18.307101   1.000000
   45      -18.292270   1.000000
   46      -18.292270   1.000000
   47      -18.288655   1.000000
   48      -18.288655   1.000000
   49      -15.200365   1.000000
   50      -15.200364   1.000000
   51      -14.748464   1.000000
   52      -14.748464   1.000000
   53      -14.511762   1.000000
   54      -14.511761   1.000000
   55      -14.181567   1.000000
   56      -14.181566   1.000000
   57      -14.156235   1.000000
   58      -14.156235   1.000000
   59      -14.144839   1.000000
   60      -14.144839   1.000000
   61      -14.073362   1.000000
   62      -14.073362   1.000000
   63      -14.066584   1.000000
   64      -14.066583   1.000000
   65      -14.047308   1.000000
   66      -14.047308   1.000000
   67      -13.873148   1.000000
   68      -13.873147   1.000000
   69      -13.860243   1.000000
   70      -13.860242   1.000000
   71      -13.747182   1.000000
   72      -13.747181   1.000000
   73       -2.814815   1.000000
   74       -2.814813   1.000000
   75       -2.693188   1.000000
   76       -2.693187   1.000000
   77       -2.680703   1.000000
   78       -2.680702   1.000000
   79       -2.546070   1.000000
   80       -2.546070   1.000000
   81       -2.345845   1.000000
   82       -2.345845   1.000000
   83       -2.208551   1.000000
   84       -2.208551   1.000000
   85       -2.193000   1.000000
   86       -2.192999   1.000000
   87       -2.168042   1.000000
   88       -2.168041   1.000000
   89       -2.085483   1.000000
   90       -2.085482   1.000000
   91       -1.924897   1.000000
   92       -1.924897   1.000000
   93       -1.712105   1.000000
   94       -1.712104   1.000000
   95       -1.642153   1.000000
   96       -1.642152   1.000000
   97       -1.618060   1.000000
   98       -1.618059   1.000000
   99       -1.514951   1.000000
  100       -1.514950   1.000000
  101       -1.259276   1.000000
  102       -1.259275   1.000000
  103       -0.967877   1.000000
  104       -0.967876   1.000000
  105       -0.725959   1.000000
  106       -0.725958   1.000000
  107       -0.711660   1.000000
  108       -0.711660   1.000000
  109       -0.445967   1.000000
  110       -0.445967   1.000000
  111       -0.442105   1.000000
  112       -0.442104   1.000000
  113       -0.265118   1.000000
  114       -0.265117   1.000000
  115       -0.263411   1.000000
  116       -0.263410   1.000000
  117       -0.254237   1.000000
  118       -0.254236   1.000000
  119       -0.056626   1.000000
  120       -0.056625   1.000000
  121        0.607390   1.000000
  122        0.607392   1.000000
  123        1.020666   1.000000
  124        1.020667   1.000000
  125        1.043169   1.000000
  126        1.043170   1.000000
  127        1.131263   1.000000
  128        1.131264   1.000000
  129        1.147093   1.000000
  130        1.147094   1.000000
  131        1.203029   1.000000
  132        1.203030   1.000000
  133        1.259067   1.000000
  134        1.259069   1.000000
  135        1.327211   1.000000
  136        1.327211   1.000000
  137        1.437888   1.000000
  138        1.437888   1.000000
  139        1.509173   1.000000
  140        1.509174   1.000000
  141        1.515276   1.000000
  142        1.515277   1.000000
  143        1.590944   1.000000
  144        1.590944   1.000000
  145        2.211070   1.000000
  146        2.211072   1.000000
  147        2.614098   1.000000
  148        2.614101   1.000000
  149        2.844965   1.000000
  150        2.844967   1.000000
  151        3.026144   1.000000
  152        3.026146   1.000000
  153        3.129340   1.000000
  154        3.129341   1.000000
  155        3.285446   1.000000
  156        3.285447   1.000000
  157        3.512692   0.999902
  158        3.512692   0.999902
  159        3.584930   0.999346
  160        3.584931   0.999346
  161        3.858599   0.899560
  162        3.858600   0.899559
  163        3.887813   0.858246
  164        3.887815   0.858242
  165        3.990018   0.636747
  166        3.990018   0.636746
  167        4.307925   0.028837
  168        4.307926   0.028836
  169        6.477749   0.000000
  170        6.477750   0.000000
  171        6.488568   0.000000
  172        6.488570   0.000000
  173        6.526517   0.000000
  174        6.526518   0.000000
  175        6.537157   0.000000
  176        6.537157   0.000000
  177        6.653996   0.000000
  178        6.653996   0.000000
  179        7.131148   0.000000
  180        7.131149   0.000000
  181        7.146500   0.000000
  182        7.146502   0.000000
  183        7.295099   0.000000
  184        7.295099   0.000000
  185        7.455505   0.000000
  186        7.455506   0.000000
  187        8.963044   0.000000
  188        8.963044   0.000000
  189        9.422566   0.000000
  190        9.422567   0.000000
  191       10.524705   0.000000
  192       10.524705   0.000000
  193       10.615814   0.000000
  194       10.615815   0.000000
  195       11.633408   0.000000
  196       11.634608   0.000000
  197       12.248672   0.000000
  198       12.254556   0.000000
 
  0.1724138E-01  0.1724138E-01  0.0000000E+00  0.5555556E-02
    1      -19.267988   1.000000
    2      -19.267988   1.000000
    3      -19.260286   1.000000
    4      -19.260286   1.000000
    5      -19.253045   1.000000
    6      -19.253045   1.000000
    7      -19.238687   1.000000
    8      -19.238687   1.000000
    9      -19.224156   1.000000
   10      -19.224156   1.000000
   11      -19.209707   1.000000
   12      -19.209707   1.000000
   13      -19.106436   1.000000
   14      -19.106436   1.000000
   15      -19.097532   1.000000
   16      -19.097532   1.000000
   17      -19.086640   1.000000
   18      -19.086640   1.000000
   19      -19.076140   1.000000
   20      -19.076140   1.000000
   21      -19.059198   1.000000
   22      -19.059198   1.000000
   23      -19.047493   1.000000
   24      -19.047493   1.000000
   25      -19.032999   1.000000
   26      -19.032999   1.000000
   27      -19.032456   1.000000
   28      -19.032456   1.000000
   29      -19.029351   1.000000
   30      -19.029351   1.000000
   31      -19.022010   1.000000
   32      -19.022010   1.000000
   33      -19.003927   1.000000
   34      -19.003927   1.000000
   35      -18.984615   1.000000
   36      -18.984615   1.000000
   37      -18.476810   1.000000
   38      -18.476810   1.000000
   39      -18.473698   1.000000
   40      -18.473698   1.000000
   41      -18.311546   1.000000
   42      -18.311546   1.000000
   43      -18.307115   1.000000
   44      -18.307115   1.000000
   45      -18.292282   1.000000
   46      -18.292282   1.000000
   47      -18.288675   1.000000
   48      -18.288675   1.000000
   49      -15.199436   1.000000
   50      -15.199435   1.000000
   51      -14.748877   1.000000
   52      -14.748876   1.000000
   53      -14.511035   1.000000
   54      -14.511034   1.000000
   55      -14.183278   1.000000
   56      -14.183278   1.000000
   57      -14.156956   1.000000
   58      -14.156956   1.000000
   59      -14.142848   1.000000
   60      -14.142847   1.000000
   61      -14.077557   1.000000
   62      -14.077557   1.000000
   63      -14.062765   1.000000
   64      -14.062765   1.000000
   65      -14.046978   1.000000
   66      -14.046978   1.000000
   67      -13.873989   1.000000
   68      -13.873988   1.000000
   69      -13.860031   1.000000
   70      -13.860030   1.000000
   71      -13.747452   1.000000
   72      -13.747451   1.000000
   73       -2.813403   1.000000
   74       -2.813402   1.000000
   75       -2.692564   1.000000
   76       -2.692563   1.000000
   77       -2.680037   1.000000
   78       -2.680036   1.000000
   79       -2.546992   1.000000
   80       -2.546991   1.000000
   81       -2.346811   1.000000
   82       -2.346811   1.000000
   83       -2.208805   1.000000
   84       -2.208805   1.000000
   85       -2.196674   1.000000
   86       -2.196673   1.000000
   87       -2.165612   1.000000
   88       -2.165612   1.000000
   89       -2.085124   1.000000
   90       -2.085123   1.000000
   91       -1.921969   1.000000
   92       -1.921968   1.000000
   93       -1.714302   1.000000
   94       -1.714301   1.000000
   95       -1.645812   1.000000
   96       -1.645811   1.000000
   97       -1.615842   1.000000
   98       -1.615841   1.000000
   99       -1.515282   1.000000
  100       -1.515281   1.000000
  101       -1.259324   1.000000
  102       -1.259323   1.000000
  103       -0.966259   1.000000
  104       -0.966258   1.000000
  105       -0.731192   1.000000
  106       -0.731192   1.000000
  107       -0.712915   1.000000
  108       -0.712915   1.000000
  109       -0.452764   1.000000
  110       -0.452763   1.000000
  111       -0.439175   1.000000
  112       -0.439174   1.000000
  113       -0.290485   1.000000
  114       -0.290484   1.000000
  115       -0.243628   1.000000
  116       -0.243628   1.000000
  117       -0.229244   1.000000
  118       -0.229243   1.000000
  119       -0.053784   1.000000
  120       -0.053782   1.000000
  121        0.605777   1.000000
  122        0.605778   1.000000
  123        1.004367   1.000000
  124        1.004368   1.000000
  125        1.056685   1.000000
  126        1.056686   1.000000
  127        1.124225   1.000000
  128        1.124226   1.000000
  129        1.149432   1.000000
  130        1.149433   1.000000
  131        1.202620   1.000000
  132        1.202621   1.000000
  133        1.254569   1.000000
  134        1.254570   1.000000
  135        1.326054   1.000000
  136        1.326054   1.000000
  137        1.435662   1.000000
  138        1.435662   1.000000
  139        1.500717   1.000000
  140        1.500718   1.000000
  141        1.521189   1.000000
  142        1.521190   1.000000
  143        1.591500   1.000000
  144        1.591501   1.000000
  145        2.215346   1.000000
  146        2.215348   1.000000
  147        2.612196   1.000000
  148        2.612198   1.000000
  149        2.846952   1.000000
  150        2.846954   1.000000
  151        3.028958   1.000000
  152        3.028960   1.000000
  153        3.128814   1.000000
  154        3.128816   1.000000
  155        3.284227   1.000000
  156        3.284228   1.000000
  157        3.511807   0.999905
  158        3.511807   0.999905
  159        3.583985   0.999361
  160        3.583987   0.999361
  161        3.860555   0.897103
  162        3.860556   0.897102
  163        3.888362   0.857373
  164        3.888364   0.857370
  165        3.990936   0.634308
  166        3.990936   0.634307
  167        4.306728   0.029399
  168        4.306729   0.029398
  169        6.479348   0.000000
  170        6.479350   0.000000
  171        6.482515   0.000000
  172        6.482516   0.000000
  173        6.535613   0.000000
  174        6.535614   0.000000
  175        6.537142   0.000000
  176        6.537143   0.000000
  177        6.653172   0.000000
  178        6.653173   0.000000
  179        7.100311   0.000000
  180        7.100312   0.000000
  181        7.177726   0.000000
  182        7.177728   0.000000
  183        7.294242   0.000000
  184        7.294243   0.000000
  185        7.454383   0.000000
  186        7.454384   0.000000
  187        8.957519   0.000000
  188        8.957520   0.000000
  189        9.431771   0.000000
  190        9.431772   0.000000
  191       10.522430   0.000000
  192       10.522431   0.000000
  193       10.618977   0.000000
  194       10.618978   0.000000
  195       11.629284   0.000000
  196       11.630681   0.000000
  197       12.216123   0.000000
  198       12.272144   0.000000
 
  0.3448276E-01  0.3448276E-01  0.0000000E+00  0.5555556E-02
    1      -19.267742   1.000000
    2      -19.267742   1.000000
    3      -19.260392   1.000000
    4      -19.260392   1.000000
    5      -19.253035   1.000000
    6      -19.253035   1.000000
    7      -19.238992   1.000000
    8      -19.238992   1.000000
    9      -19.224106   1.000000
   10      -19.224106   1.000000
   11      -19.209724   1.000000
   12      -19.209724   1.000000
   13      -19.106274   1.000000
   14      -19.106274   1.000000
   15      -19.097287   1.000000
   16      -19.097287   1.000000
   17      -19.086633   1.000000
   18      -19.086633   1.000000
   19      -19.076303   1.000000
   20      -19.076303   1.000000
   21      -19.059179   1.000000
   22      -19.059179   1.000000
   23      -19.047542   1.000000
   24      -19.047542   1.000000
   25      -19.033011   1.000000
   26      -19.033011   1.000000
   27      -19.032465   1.000000
   28      -19.032465   1.000000
   29      -19.029206   1.000000
   30      -19.029206   1.000000
   31      -19.022029   1.000000
   32      -19.022029   1.000000
   33      -19.003926   1.000000
   34      -19.003926   1.000000
   35      -18.984890   1.000000
   36      -18.984890   1.000000
   37      -18.476819   1.000000
   38      -18.476819   1.000000
   39      -18.473741   1.000000
   40      -18.473740   1.000000
   41      -18.311532   1.000000
   42      -18.311532   1.000000
   43      -18.307156   1.000000
   44      -18.307156   1.000000
   45      -18.292316   1.000000
   46      -18.292316   1.000000
   47      -18.288735   1.000000
   48      -18.288735   1.000000
   49      -15.196647   1.000000
   50      -15.196646   1.000000
   51      -14.750103   1.000000
   52      -14.750102   1.000000
   53      -14.508857   1.000000
   54      -14.508857   1.000000
   55      -14.187612   1.000000
   56      -14.187611   1.000000
   57      -14.159083   1.000000
   58      -14.159083   1.000000
   59      -14.137679   1.000000
   60      -14.137678   1.000000
   61      -14.084264   1.000000
   62      -14.084264   1.000000
   63      -14.057202   1.000000
   64      -14.057202   1.000000
   65      -14.045956   1.000000
   66      -14.045956   1.000000
   67      -13.876344   1.000000
   68      -13.876343   1.000000
   69      -13.859500   1.000000
   70      -13.859499   1.000000
   71      -13.748256   1.000000
   72      -13.748255   1.000000
   73       -2.809158   1.000000
   74       -2.809157   1.000000
   75       -2.690738   1.000000
   76       -2.690737   1.000000
   77       -2.678047   1.000000
   78       -2.678047   1.000000
   79       -2.549593   1.000000
   80       -2.549593   1.000000
   81       -2.349741   1.000000
   82       -2.349741   1.000000
   83       -2.209463   1.000000
   84       -2.209462   1.000000
   85       -2.205108   1.000000
   86       -2.205107   1.000000
   87       -2.160932   1.000000
   88       -2.160931   1.000000
   89       -2.084032   1.000000
   90       -2.084031   1.000000
   91       -1.913543   1.000000
   92       -1.913542   1.000000
   93       -1.720158   1.000000
   94       -1.720157   1.000000
   95       -1.656456   1.000000
   96       -1.656455   1.000000
   97       -1.609759   1.000000
   98       -1.609758   1.000000
   99       -1.516223   1.000000
  100       -1.516222   1.000000
  101       -1.259424   1.000000
  102       -1.259423   1.000000
  103       -0.962897   1.000000
  104       -0.962896   1.000000
  105       -0.743635   1.000000
  106       -0.743634   1.000000
  107       -0.716876   1.000000
  108       -0.716876   1.000000
  109       -0.468925   1.000000
  110       -0.468925   1.000000
  111       -0.433122   1.000000
  112       -0.433122   1.000000
  113       -0.306564   1.000000
  114       -0.306563   1.000000
  115       -0.215820   1.000000
  116       -0.215820   1.000000
  117       -0.186217   1.000000
  118       -0.186216   1.000000
  119       -0.045333   1.000000
  120       -0.045331   1.000000
  121        0.600940   1.000000
  122        0.600941   1.000000
  123        0.978212   1.000000
  124        0.978213   1.000000
  125        1.074685   1.000000
  126        1.074685   1.000000
  127        1.109187   1.000000
  128        1.109189   1.000000
  129        1.149633   1.000000
  130        1.149634   1.000000
  131        1.201262   1.000000
  132        1.201263   1.000000
  133        1.242613   1.000000
  134        1.242614   1.000000
  135        1.321884   1.000000
  136        1.321884   1.000000
  137        1.429306   1.000000
  138        1.429306   1.000000
  139        1.486908   1.000000
  140        1.486909   1.000000
  141        1.527476   1.000000
  142        1.527477   1.000000
  143        1.593150   1.000000
  144        1.593151   1.000000
  145        2.227903   1.000000
  146        2.227905   1.000000
  147        2.606779   1.000000
  148        2.606781   1.000000
  149        2.852731   1.000000
  150        2.852733   1.000000
  151        3.037181   1.000000
  152        3.037183   1.000000
  153        3.127153   1.000000
  154        3.127155   1.000000
  155        3.280642   1.000000
  156        3.280643   1.000000
  157        3.509291   0.999911
  158        3.509291   0.999911
  159        3.581186   0.999404
  160        3.581187   0.999404
  161        3.866283   0.889658
  162        3.866285   0.889656
  163        3.890012   0.854727
  164        3.890014   0.854723
  165        3.993645   0.627079
  166        3.993645   0.627078
  167        4.303156   0.031129
  168        4.303158   0.031129
  169        6.461773   0.000000
  170        6.461775   0.000000
  171        6.496366   0.000000
  172        6.496366   0.000000
  173        6.537395   0.000000
  174        6.537396   0.000000
  175        6.552821   0.000000
  176        6.552822   0.000000
  177        6.650779   0.000000
  178        6.650779   0.000000
  179        7.063491   0.000000
  180        7.063492   0.000000
  181        7.215666   0.000000
  182        7.215667   0.000000
  183        7.291630   0.000000
  184        7.291630   0.000000
  185        7.451164   0.000000
  186        7.451164   0.000000
  187        8.942277   0.000000
  188        8.942277   0.000000
  189        9.458067   0.000000
  190        9.458068   0.000000
  191       10.515654   0.000000
  192       10.515654   0.000000
  193       10.628371   0.000000
  194       10.628372   0.000000
  195       11.619132   0.000000
  196       11.621631   0.000000
  197       12.203554   0.000000
  198       12.270461   0.000000
 
  0.5172414E-01  0.5172414E-01  0.0000000E+00  0.5555556E-02
    1      -19.267336   1.000000
    2      -19.267336   1.000000
    3      -19.260562   1.000000
    4      -19.260562   1.000000
    5      -19.253021   1.000000
    6      -19.253021   1.000000
    7      -19.239490   1.000000
    8      -19.239490   1.000000
    9      -19.224030   1.000000
   10      -19.224030   1.000000
   11      -19.209754   1.000000
   12      -19.209754   1.000000
   13      -19.106007   1.000000
   14      -19.106007   1.000000
   15      -19.096883   1.000000
   16      -19.096883   1.000000
   17      -19.086623   1.000000
   18      -19.086623   1.000000
   19      -19.076560   1.000000
   20      -19.076560   1.000000
   21      -19.059149   1.000000
   22      -19.059149   1.000000
   23      -19.047625   1.000000
   24      -19.047625   1.000000
   25      -19.033020   1.000000
   26      -19.033020   1.000000
   27      -19.032480   1.000000
   28      -19.032480   1.000000
   29      -19.028985   1.000000
   30      -19.028985   1.000000
   31      -19.022061   1.000000
   32      -19.022061   1.000000
   33      -19.003924   1.000000
   34      -19.003924   1.000000
   35      -18.985346   1.000000
   36      -18.985346   1.000000
   37      -18.476835   1.000000
   38      -18.476835   1.000000
   39      -18.473812   1.000000
   40      -18.473812   1.000000
   41      -18.311508   1.000000
   42      -18.311508   1.000000
   43      -18.307225   1.000000
   44      -18.307224   1.000000
   45      -18.292372   1.000000
   46      -18.292372   1.000000
   47      -18.288835   1.000000
   48      -18.288835   1.000000
   49      -15.192000   1.000000
   50      -15.191999   1.000000
   51      -14.752026   1.000000
   52      -14.752025   1.000000
   53      -14.505344   1.000000
   54      -14.505343   1.000000
   55      -14.193242   1.000000
   56      -14.193241   1.000000
   57      -14.162517   1.000000
   58      -14.162517   1.000000
   59      -14.130645   1.000000
   60      -14.130645   1.000000
   61      -14.091489   1.000000
   62      -14.091489   1.000000
   63      -14.052062   1.000000
   64      -14.052062   1.000000
   65      -14.044090   1.000000
   66      -14.044090   1.000000
   67      -13.879974   1.000000
   68      -13.879974   1.000000
   69      -13.858887   1.000000
   70      -13.858886   1.000000
   71      -13.749574   1.000000
   72      -13.749573   1.000000
   73       -2.802189   1.000000
   74       -2.802188   1.000000
   75       -2.687864   1.000000
   76       -2.687863   1.000000
   77       -2.674741   1.000000
   78       -2.674740   1.000000
   79       -2.553410   1.000000
   80       -2.553409   1.000000
   81       -2.354635   1.000000
   82       -2.354635   1.000000
   83       -2.215597   1.000000
   84       -2.215596   1.000000
   85       -2.210314   1.000000
   86       -2.210314   1.000000
   87       -2.156682   1.000000
   88       -2.156681   1.000000
   89       -2.082219   1.000000
   90       -2.082218   1.000000
   91       -1.900547   1.000000
   92       -1.900546   1.000000
   93       -1.728037   1.000000
   94       -1.728036   1.000000
   95       -1.673152   1.000000
   96       -1.673151   1.000000
   97       -1.601003   1.000000
   98       -1.601002   1.000000
   99       -1.517657   1.000000
  100       -1.517656   1.000000
  101       -1.259574   1.000000
  102       -1.259574   1.000000
  103       -0.961980   1.000000
  104       -0.961979   1.000000
  105       -0.755500   1.000000
  106       -0.755499   1.000000
  107       -0.724054   1.000000
  108       -0.724053   1.000000
  109       -0.487257   1.000000
  110       -0.487257   1.000000
  111       -0.429450   1.000000
  112       -0.429450   1.000000
  113       -0.310898   1.000000
  114       -0.310897   1.000000
  115       -0.177465   1.000000
  116       -0.177465   1.000000
  117       -0.135970   1.000000
  118       -0.135969   1.000000
  119       -0.031517   1.000000
  120       -0.031516   1.000000
  121        0.592856   1.000000
  122        0.592857   1.000000
  123        0.949495   1.000000
  124        0.949496   1.000000
  125        1.089597   1.000000
  126        1.089598   1.000000
  127        1.090356   1.000000
  128        1.090357   1.000000
  129        1.142048   1.000000
  130        1.142050   1.000000
  131        1.198629   1.000000
  132        1.198630   1.000000
  133        1.227021   1.000000
  134        1.227022   1.000000
  135        1.313342   1.000000
  136        1.313342   1.000000
  137        1.419809   1.000000
  138        1.419809   1.000000
  139        1.469690   1.000000
  140        1.469691   1.000000
  141        1.532536   1.000000
  142        1.532537   1.000000
  143        1.595841   1.000000
  144        1.595842   1.000000
  145        2.247991   1.000000
  146        2.247993   1.000000
  147        2.598591   1.000000
  148        2.598594   1.000000
  149        2.861845   1.000000
  150        2.861846   1.000000
  151        3.050209   1.000000
  152        3.050211   1.000000
  153        3.124119   1.000000
  154        3.124121   1.000000
  155        3.274904   1.000000
  156        3.274905   1.000000
  157        3.505524   0.999920
  158        3.505524   0.999920
  159        3.576616   0.999468
  160        3.576618   0.999468
  161        3.875400   0.877026
  162        3.875401   0.877024
  163        3.892779   0.850215
  164        3.892782   0.850211
  165        3.998022   0.615308
  166        3.998022   0.615307
  167        4.297271   0.034164
  168        4.297273   0.034164
  169        6.442470   0.000000
  170        6.442471   0.000000
  171        6.516038   0.000000
  172        6.516038   0.000000
  173        6.540675   0.000000
  174        6.540675   0.000000
  175        6.571531   0.000000
  176        6.571533   0.000000
  177        6.647071   0.000000
  178        6.647072   0.000000
  179        7.027084   0.000000
  180        7.027085   0.000000
  181        7.253789   0.000000
  182        7.253790   0.000000
  183        7.287144   0.000000
  184        7.287144   0.000000
  185        7.446282   0.000000
  186        7.446282   0.000000
  187        8.920385   0.000000
  188        8.920385   0.000000
  189        9.498402   0.000000
  190        9.498404   0.000000
  191       10.504515   0.000000
  192       10.504515   0.000000
  193       10.643700   0.000000
  194       10.643701   0.000000
  195       11.602390   0.000000
  196       11.604018   0.000000
  197       12.168405   0.000000
  198       12.273537   0.000000
 
  0.6896552E-01  0.6896552E-01  0.0000000E+00  0.5555556E-02
    1      -19.266774   1.000000
    2      -19.266774   1.000000
    3      -19.260788   1.000000
    4      -19.260788   1.000000
    5      -19.253005   1.000000
    6      -19.253005   1.000000
    7      -19.240168   1.000000
    8      -19.240168   1.000000
    9      -19.223936   1.000000
   10      -19.223936   1.000000
   11      -19.209799   1.000000
   12      -19.209799   1.000000
   13      -19.105639   1.000000
   14      -19.105639   1.000000
   15      -19.096331   1.000000
   16      -19.096331   1.000000
   17      -19.086615   1.000000
   18      -19.086615   1.000000
   19      -19.076894   1.000000
   20      -19.076894   1.000000
   21      -19.059113   1.000000
   22      -19.059113   1.000000
   23      -19.047742   1.000000
   24      -19.047742   1.000000
   25      -19.033016   1.000000
   26      -19.033016   1.000000
   27      -19.032499   1.000000
   28      -19.032499   1.000000
   29      -19.028707   1.000000
   30      -19.028707   1.000000
   31      -19.022105   1.000000
   32      -19.022105   1.000000
   33      -19.003924   1.000000
   34      -19.003924   1.000000
   35      -18.985974   1.000000
   36      -18.985974   1.000000
   37      -18.476857   1.000000
   38      -18.476857   1.000000
   39      -18.473911   1.000000
   40      -18.473911   1.000000
   41      -18.311477   1.000000
   42      -18.311477   1.000000
   43      -18.307320   1.000000
   44      -18.307320   1.000000
   45      -18.292449   1.000000
   46      -18.292449   1.000000
   47      -18.288972   1.000000
   48      -18.288972   1.000000
   49      -15.185535   1.000000
   50      -15.185534   1.000000
   51      -14.754511   1.000000
   52      -14.754510   1.000000
   53      -14.500651   1.000000
   54      -14.500650   1.000000
   55      -14.199390   1.000000
   56      -14.199389   1.000000
   57      -14.167192   1.000000
   58      -14.167191   1.000000
   59      -14.122554   1.000000
   60      -14.122553   1.000000
   61      -14.099008   1.000000
   62      -14.099008   1.000000
   63      -14.048227   1.000000
   64      -14.048227   1.000000
   65      -14.040867   1.000000
   66      -14.040867   1.000000
   67      -13.884701   1.000000
   68      -13.884700   1.000000
   69      -13.858333   1.000000
   70      -13.858332   1.000000
   71      -13.751414   1.000000
   72      -13.751413   1.000000
   73       -2.792663   1.000000
   74       -2.792662   1.000000
   75       -2.684237   1.000000
   76       -2.684237   1.000000
   77       -2.670143   1.000000
   78       -2.670142   1.000000
   79       -2.557810   1.000000
   80       -2.557810   1.000000
   81       -2.361383   1.000000
   82       -2.361383   1.000000
   83       -2.227053   1.000000
   84       -2.227052   1.000000
   85       -2.211285   1.000000
   86       -2.211285   1.000000
   87       -2.153921   1.000000
   88       -2.153920   1.000000
   89       -2.079688   1.000000
   90       -2.079687   1.000000
   91       -1.884498   1.000000
   92       -1.884497   1.000000
   93       -1.736146   1.000000
   94       -1.736145   1.000000
   95       -1.694594   1.000000
   96       -1.694593   1.000000
   97       -1.590599   1.000000
   98       -1.590599   1.000000
   99       -1.519343   1.000000
  100       -1.519342   1.000000
  101       -1.259927   1.000000