    2    2    1    1
  0.2290859E+02  0.4016500E-09  0.4016500E-09  0.4016500E-09  0.5000000E-15
  1.000000000000000E-004
  CAR 
 unknown system                          
     18    240     30
 
  0.0000000E+00  0.0000000E+00  0.0000000E+00  0.4166667E-02
    1      -11.227818   1.000000
    2      -11.227818   1.000000
    3      -11.227815   1.000000
    4      -11.227815   1.000000
    5      -10.802098   1.000000
    6      -10.802098   1.000000
    7      -10.750377   1.000000
    8      -10.750377   1.000000
    9      -10.750375   1.000000
   10      -10.750375   1.000000
   11       -8.822917   1.000000
   12       -8.822917   1.000000
   13        3.583408   1.000000
   14        3.583408   1.000000
   15        3.911471   0.991903
   16        3.911471   0.991903
   17        3.911471   0.991903
   18        3.911471   0.991903
   19        4.216780   0.027862
   20        4.216780   0.027862
   21        7.399781   0.000000
   22        7.399781   0.000000
   23        7.584482   0.000000
   24        7.584482   0.000000
   25        7.584483   0.000000
   26        7.584483   0.000000
   27       11.345536   0.000000
   28       11.345536   0.000000
   29       13.889556   0.000000
   30       13.889567   0.000000
 
  0.1282051E-01  0.0000000E+00  0.1282051E-01  0.4166667E-02
    1      -11.228038   1.000000
    2      -11.228037   1.000000
    3      -11.227622   1.000000
    4      -11.227620   1.000000
    5      -10.802130   1.000000
    6      -10.802130   1.000000
    7      -10.750614   1.000000
    8      -10.750613   1.000000
    9      -10.750166   1.000000
   10      -10.750165   1.000000
   11       -8.820374   1.000000
   12       -8.820374   1.000000
   13        3.549153   1.000000
   14        3.549153   1.000000
   15        3.829127   0.999821
   16        3.829127   0.999821
   17        3.902158   0.994397
   18        3.902158   0.994397
   19        4.324775   0.000290
   20        4.324775   0.000290
   21        7.404631   0.000000
   22        7.404631   0.000000
   23        7.582418   0.000000
   24        7.582418   0.000000
   25        7.595859   0.000000
   26        7.595859   0.000000
   27       11.361317   0.000000
   28       11.361317   0.000000
   29       13.839742   0.000000
   30       13.875881   0.000000
 
  0.2564103E-01  0.0000000E+00  0.2564103E-01  0.4166667E-02
    1      -11.228333   1.000000
    2      -11.228331   1.000000
    3      -11.227429   1.000000
    4      -11.227428   1.000000
    5      -10.802235   1.000000
    6      -10.802235   1.000000
    7      -10.750883   1.000000
    8      -10.750882   1.000000
    9      -10.749993   1.000000
   10      -10.749991   1.000000
   11       -8.812734   1.000000
   12       -8.812734   1.000000
   13        3.433523   1.000000
   14        3.433523   1.000000
   15        3.724555   1.000000
   16        3.724555   1.000000
   17        3.874627   0.998281
   18        3.874627   0.998281
   19        4.519306   0.000000
   20        4.519306   0.000000
   21        7.411110   0.000000
   22        7.411110   0.000000
   23        7.584368   0.000000
   24        7.584368   0.000000
   25        7.629638   0.000000
   26        7.629638   0.000000
   27       11.408067   0.000000
   28       11.408067   0.000000
   29       13.687804   0.000000
   30       13.731796   0.000000
 
  0.3846154E-01  0.0000000E+00  0.3846154E-01  0.4166667E-02
    1      -11.228722   1.000000
    2      -11.228721   1.000000
    3      -11.227206   1.000000
    4      -11.227205   1.000000
    5      -10.802412   1.000000
    6      -10.802412   1.000000
    7      -10.751171   1.000000
    8      -10.751170   1.000000
    9      -10.749850   1.000000
   10      -10.749849   1.000000
   11       -8.800012   1.000000
   12       -8.800012   1.000000
   13        3.253246   1.000000
   14        3.253246   1.000000
   15        3.651339   1.000000
   16        3.651339   1.000000
   17        3.830080   0.999811
   18        3.830080   0.999811
   19        4.730673   0.000000
   20        4.730674   0.000000
   21        7.397849   0.000000
   22        7.397849   0.000000
   23        7.612062   0.000000
   24        7.612062   0.000000
   25        7.684911   0.000000
   26        7.684911   0.000000
   27       11.484142   0.000000
   28       11.484142   0.000000
   29       13.483592   0.000000
   30       13.483953   0.000000
 
  0.5128205E-01  0.0000000E+00  0.5128205E-01  0.4166667E-02
    1      -11.229220   1.000000
    2      -11.229219   1.000000
    3      -11.226934   1.000000
    4      -11.226933   1.000000
    5      -10.802659   1.000000
    6      -10.802659   1.000000
    7      -10.751469   1.000000
    8      -10.751467   1.000000
    9      -10.749735   1.000000
   10      -10.749734   1.000000
   11       -8.782234   1.000000
   12       -8.782234   1.000000
   13        3.046871   1.000000
   14        3.046871   1.000000
   15        3.584621   1.000000
   16        3.584621   1.000000
   17        3.770297   0.999995
   18        3.770297   0.999995
   19        4.946016   0.000000
   20        4.946016   0.000000
   21        7.354876   0.000000
   22        7.354876   0.000000
   23        7.676013   0.000000
   24        7.676013   0.000000
   25        7.760294   0.000000
   26        7.760294   0.000000
   27       11.587039   0.000000
   28       11.587039   0.000000
   29       13.250608   0.000000
   30       13.250779   0.000000
 
  0.6410256E-01  0.0000000E+00  0.6410256E-01  0.4166667E-02
    1      -11.229830   1.000000
    2      -11.229829   1.000000
    3      -11.226605   1.000000
    4      -11.226604   1.000000
    5      -10.802978   1.000000
    6      -10.802978   1.000000
    7      -10.751763   1.000000
    8      -10.751761   1.000000
    9      -10.749645   1.000000
   10      -10.749643   1.000000
   11       -8.759436   1.000000
   12       -8.759436   1.000000
   13        2.831260   1.000000
   14        2.831260   1.000000
   15        3.512776   1.000000
   16        3.512777   1.000000
   17        3.697395   1.000000
   18        3.697395   1.000000
   19        5.160931   0.000000
   20        5.160931   0.000000
   21        7.290332   0.000000
   22        7.290332   0.000000
   23        7.768762   0.000000
   24        7.768762   0.000000
   25        7.854094   0.000000
   26        7.854094   0.000000
   27       11.713425   0.000000
   28       11.713425   0.000000
   29       13.005042   0.000000
   30       13.005078   0.000000
 
  0.7692308E-01  0.0000000E+00  0.7692308E-01  0.4166667E-02
    1      -11.230559   1.000000
    2      -11.230558   1.000000
    3      -11.226221   1.000000
    4      -11.226220   1.000000
    5      -10.803373   1.000000
    6      -10.803373   1.000000
    7      -10.752042   1.000000
    8      -10.752041   1.000000
    9      -10.749579   1.000000
   10      -10.749578   1.000000
   11       -8.731669   1.000000
   12       -8.731669   1.000000
   13        2.612107   1.000000
   14        2.612107   1.000000
   15        3.433398   1.000000
   16        3.433399   1.000000
   17        3.613596   1.000000
   18        3.613596   1.000000
   19        5.372711   0.000000
   20        5.372711   0.000000
   21        7.212400   0.000000
   22        7.212400   0.000000
   23        7.882930   0.000000
   24        7.882930   0.000000
   25        7.964462   0.000000
   26        7.964462   0.000000
   27       11.858524   0.000000
   28       11.858525   0.000000
   29       12.758959   0.000000
   30       12.758966   0.000000
 
  0.8974359E-01  0.0000000E+00  0.8974359E-01  0.4166667E-02
    1      -11.231398   1.000000
    2      -11.231398   1.000000
    3      -11.225779   1.000000
    4      -11.225778   1.000000
    5      -10.803843   1.000000
    6      -10.803843   1.000000
    7      -10.752288   1.000000
    8      -10.752286   1.000000
    9      -10.749533   1.000000
   10      -10.749532   1.000000
   11       -8.699002   1.000000
   12       -8.699002   1.000000
   13        2.391680   1.000000
   14        2.391680   1.000000
   15        3.346806   1.000000
   16        3.346806   1.000000
   17        3.521062   1.000000
   18        3.521062   1.000000
   19        5.578790   0.000000
   20        5.578790   0.000000
   21        7.126607   0.000000
   22        7.126607   0.000000
   23        8.014086   0.000000
   24        8.014086   0.000000
   25        8.089548   0.000000
   26        8.089548   0.000000
   27       12.010998   0.000000
   28       12.011031   0.000000
   29       12.527610   0.000000
   30       12.527620   0.000000
 
  0.1025641E+00  0.0000000E+00  0.1025641E+00  0.4166667E-02
    1      -11.232347   1.000000
    2      -11.232346   1.000000
    3      -11.225282   1.000000
    4      -11.225281   1.000000
    5      -10.804390   1.000000
    6      -10.804390   1.000000
    7      -10.752487   1.000000
    8      -10.752485   1.000000
    9      -10.749505   1.000000
   10      -10.749504   1.000000
   11       -8.661490   1.000000
   12       -8.661490   1.000000
   13        2.171059   1.000000
   14        2.171059   1.000000
   15        3.254089   1.000000
   16        3.254089   1.000000
   17        3.421773   1.000000
   18        3.421773   1.000000
   19        5.775948   0.000000
   20        5.775948   0.000000
   21        7.037606   0.000000
   22        7.037606   0.000000
   23        8.159250   0.000000
   24        8.159250   0.000000
   25        8.227588   0.000000
   26        8.227588   0.000000
   27       12.100679   0.000000
   28       12.100680   0.000000
   29       12.383636   0.000000
   30       12.383653   0.000000
 
  0.1153846E+00  0.0000000E+00  0.1153846E+00  0.4166667E-02
    1      -11.233396   1.000000
    2      -11.233396   1.000000
    3      -11.224735   1.000000
    4      -11.224735   1.000000
    5      -10.805013   1.000000
    6      -10.805012   1.000000
    7      -10.752622   1.000000
    8      -10.752621   1.000000
    9      -10.749491   1.000000
   10      -10.749489   1.000000
   11       -8.619204   1.000000
   12       -8.619204   1.000000
   13        1.950828   1.000000
   14        1.950828   1.000000
   15        3.156542   1.000000
   16        3.156542   1.000000
   17        3.317492   1.000000
   18        3.317492   1.000000
   19        5.959302   0.000000
   20        5.959302   0.000000
   21        6.950681   0.000000
   22        6.950681   0.000000
   23        8.316151   0.000000
   24        8.316151   0.000000
   25        8.376948   0.000000
   26        8.376948   0.000000
   27       11.968290   0.000000
   28       11.968291   0.000000
   29       12.488334   0.000000
   30       12.488335   0.000000
 
  0.1282051E+00  0.0000000E+00  0.1282051E+00  0.4166667E-02
    1      -11.234540   1.000000
    2      -11.234540   1.000000
    3      -11.224140   1.000000
    4      -11.224139   1.000000
    5      -10.805707   1.000000
    6      -10.805706   1.000000
    7      -10.752682   1.000000
    8      -10.752681   1.000000
    9      -10.749485   1.000000
   10      -10.749483   1.000000
   11       -8.572224   1.000000
   12       -8.572224   1.000000
   13        1.731360   1.000000
   14        1.731360   1.000000
   15        3.055419   1.000000
   16        3.055420   1.000000
   17        3.209746   1.000000
   18        3.209746   1.000000
   19        6.120268   0.000000
   20        6.120268   0.000000
   21        6.873997   0.000000
   22        6.873997   0.000000
   23        8.482975   0.000000
   24        8.482975   0.000000
   25        8.536174   0.000000
   26        8.536174   0.000000
   27       11.771190   0.000000
   28       11.771190   0.000000
   29       12.686310   0.000000
   30       12.686361   0.000000
 
  0.1410256E+00  0.0000000E+00  0.1410256E+00  0.4166667E-02
    1      -11.235769   1.000000
    2      -11.235769   1.000000
    3      -11.223497   1.000000
    4      -11.223497   1.000000
    5      -10.806465   1.000000
    6      -10.806465   1.000000
    7      -10.752654   1.000000
    8      -10.752652   1.000000
    9      -10.749483   1.000000
   10      -10.749482   1.000000
   11       -8.520638   1.000000
   12       -8.520638   1.000000
   13        1.512912   1.000000
   14        1.512912   1.000000
   15        2.951874   1.000000
   16        2.951874   1.000000
   17        3.099839   1.000000
   18        3.099839   1.000000
   19        6.242384   0.000000
   20        6.242384   0.000000
   21        6.822797   0.000000
   22        6.822797   0.000000
   23        8.658227   0.000000
   24        8.658227   0.000000
   25        8.703991   0.000000
   26        8.703991   0.000000
   27       11.581016   0.000000
   28       11.581016   0.000000
   29       12.908138   0.000000
   30       12.908140   0.000000
 
  0.1538462E+00  0.0000000E+00  0.1538462E+00  0.4166667E-02
    1      -11.237077   1.000000
    2      -11.237076   1.000000
    3      -11.222817   1.000000
    4      -11.222816   1.000000
    5      -10.807282   1.000000
    6      -10.807282   1.000000
    7      -10.752534   1.000000
    8      -10.752533   1.000000
    9      -10.749486   1.000000
   10      -10.749484   1.000000
   11       -8.464553   1.000000
   12       -8.464553   1.000000
   13        1.295670   1.000000
   14        1.295670   1.000000
   15        2.846928   1.000000
   16        2.846928   1.000000
   17        2.988876   1.000000
   18        2.988876   1.000000
   19        6.300985   0.000000
   20        6.300985   0.000000
   21        6.819756   0.000000
   22        6.819756   0.000000
   23        8.840624   0.000000
   24        8.840624   0.000000
   25        8.879268   0.000000
   26        8.879268   0.000000
   27       11.410533   0.000000
   28       11.410533   0.000000
   29       13.143626   0.000000
   30       13.144179   0.000000
 
  0.1666667E+00  0.0000000E+00  0.1666667E+00  0.4166667E-02
    1      -11.238453   1.000000
    2      -11.238453   1.000000
    3      -11.222104   1.000000
    4      -11.222104   1.000000
    5      -10.808150   1.000000
    6      -10.808150   1.000000
    7      -10.752320   1.000000
    8      -10.752319   1.000000
    9      -10.749489   1.000000
   10      -10.749487   1.000000
   11       -8.404083   1.000000
   12       -8.404083   1.000000
   13        1.079791   1.000000
   14        1.079791   1.000000
   15        2.741474   1.000000
   16        2.741474   1.000000
   17        2.877789   1.000000
   18        2.877789   1.000000
   19        6.289238   0.000000
   20        6.289238   0.000000
   21        6.869128   0.000000
   22        6.869128   0.000000
   23        9.029086   0.000000
   24        9.029086   0.000000
   25        9.061070   0.000000
   26        9.061070   0.000000
   27       11.266023   0.000000
   28       11.266023   0.000000
   29       13.389398   0.000000
   30       13.389416   0.000000
 
  0.1794872E+00  0.0000000E+00  0.1794872E+00  0.4166667E-02
    1      -11.239888   1.000000
    2      -11.239887   1.000000
    3      -11.221362   1.000000
    4      -11.221361   1.000000
    5      -10.809058   1.000000
    6      -10.809057   1.000000
    7      -10.752013   1.000000
    8      -10.752012   1.000000
    9      -10.749484   1.000000
   10      -10.749482   1.000000
   11       -8.339346   1.000000
   12       -8.339346   1.000000
   13        0.865415   1.000000
   14        0.865415   1.000000
   15        2.636287   1.000000
   16        2.636287   1.000000
   17        2.767361   1.000000
   18        2.767361   1.000000
   19        6.233055   0.000000
   20        6.233055   0.000000
   21        6.942033   0.000000
   22        6.942033   0.000000
   23        9.222634   0.000000
   24        9.222634   0.000000
   25        9.248617   0.000000
   26        9.248617   0.000000
   27       11.152455   0.000000
   28       11.152455   0.000000
   29       13.643793   0.000000
   30       13.644468   0.000000
 
  0.1923077E+00  0.0000000E+00  0.1923077E+00  0.4166667E-02
    1      -11.241371   1.000000
    2      -11.241370   1.000000
    3      -11.220595   1.000000
    4      -11.220595   1.000000
    5      -10.809992   1.000000
    6      -10.809992   1.000000
    7      -10.751624   1.000000
    8      -10.751622   1.000000
    9      -10.749461   1.000000
   10      -10.749460   1.000000
   11       -8.270466   1.000000
   12       -8.270466   1.000000
   13        0.652668   1.000000
   14        0.652668   1.000000
   15        2.532036   1.000000
   16        2.532036   1.000000
   17        2.658261   1.000000
   18        2.658261   1.000000
   19        6.157355   0.000000
   20        6.157355   0.000000
   21        7.010665   0.000000
   22        7.010665   0.000000
   23        9.420330   0.000000
   24        9.420330   0.000000
   25        9.441338   0.000000
   26        9.441338   0.000000
   27       11.074053   0.000000
   28       11.074053   0.000000
   29       13.905036   0.000000
   30       13.905830   0.000000
 
  0.2051282E+00  0.0000000E+00  0.2051282E+00  0.4166667E-02
    1      -11.242893   1.000000
    2      -11.242893   1.000000
    3      -11.219811   1.000000
    4      -11.219810   1.000000
    5      -10.810944   1.000000
    6      -10.810944   1.000000
    7      -10.751177   1.000000
    8      -10.751175   1.000000
    9      -10.749400   1.000000
   10      -10.749398   1.000000
   11       -8.197585   1.000000
   12       -8.197585   1.000000
   13        0.441683   1.000000
   14        0.441683   1.000000
   15        2.429301   1.000000
   16        2.429301   1.000000
   17        2.551052   1.000000
   18        2.551052   1.000000
   19        6.074453   0.000000
   20        6.074453   0.000000
   21        7.060518   0.000000
   22        7.060518   0.000000
   23        9.621179   0.000000
   24        9.621179   0.000000
   25        9.638916   0.000000
   26        9.638916   0.000000
   27       11.033975   0.000000
   28       11.033975   0.000000
   29       14.172330   0.000000
   30       14.194022   0.000000
 
  0.2179487E+00  0.0000000E+00  0.2179487E+00  0.4166667E-02
    1      -11.244445   1.000000
    2      -11.244444   1.000000
    3      -11.219013   1.000000
    4      -11.219012   1.000000
    5      -10.811902   1.000000
    6      -10.811902   1.000000
    7      -10.750724   1.000000
    8      -10.750722   1.000000
    9      -10.749251   1.000000
   10      -10.749249   1.000000
   11       -8.120864   1.000000
   12       -8.120864   1.000000
   13        0.232618   1.000000
   14        0.232618   1.000000
   15        2.328580   1.000000
   16        2.328580   1.000000
   17        2.446215   1.000000
   18        2.446215   1.000000
   19        5.989914   0.000000
   20        5.989914   0.000000
   21        7.085171   0.000000
   22        7.085171   0.000000
   23        9.824178   0.000000
   24        9.824178   0.000000
   25        9.841213   0.000000
   26        9.841213   0.000000
   27       11.033782   0.000000
   28       11.033782   0.000000
   29       14.451698   0.000000
   30       14.508974   0.000000
 
  0.2307692E+00  0.0000000E+00  0.2307692E+00  0.4166667E-02
    1      -11.246015   1.000000
    2      -11.246014   1.000000
    3      -11.218209   1.000000
    4      -11.218209   1.000000
    5      -10.812855   1.000000
    6      -10.812855   1.000000
    7      -10.750362   1.000000
    8      -10.750360   1.000000
    9      -10.748928   1.000000
   10      -10.748927   1.000000
   11       -8.040487   1.000000
   12       -8.040487   1.000000
   13        0.025637   1.000000
   14        0.025637   1.000000
   15        2.230307   1.000000
   16        2.230307   1.000000
   17        2.344164   1.000000
   18        2.344164   1.000000
   19        5.906499   0.000000
   20        5.906499   0.000000
   21        7.082752   0.000000
   22        7.082752   0.000000
   23       10.028730   0.000000
   24       10.028730   0.000000
   25       10.047847   0.000000
   26       10.047847   0.000000
   27       11.073072   0.000000
   28       11.073072   0.000000
   29       14.725138   0.000000
   30       14.730610   0.000000
 
  0.2435897E+00  0.0000000E+00  0.2435897E+00  0.4166667E-02
    1      -11.247593   1.000000
    2      -11.247593   1.000000
    3      -11.217405   1.000000
    4      -11.217405   1.000000
    5      -10.813794   1.000000
    6      -10.813794   1.000000
    7      -10.750151   1.000000
    8      -10.750150   1.000000
    9      -10.748380   1.000000
   10      -10.748379   1.000000
   11       -7.956645   1.000000
   12       -7.956645   1.000000
   13       -0.179072   1.000000
   14       -0.179072   1.000000
   15        2.134859   1.000000
   16        2.134859   1.000000
   17        2.245251   1.000000
   18        2.245252   1.000000
   19        5.825747   0.000000
   20        5.825747   0.000000
   21        7.054433   0.000000
   22        7.054433   0.000000
   23       10.234777   0.000000
   24       10.234777   0.000000
   25       10.257984   0.000000
   26       10.257984   0.000000
   27       11.149490   0.000000
   28       11.149490   0.000000
   29       14.834103   0.000000
   30       14.861939   0.000000
 
  0.2564103E+00  0.0000000E+00  0.2564103E+00  0.4166667E-02
    1      -11.249171   1.000000
    2      -11.249171   1.000000
    3      -11.216605   1.000000
    4      -11.216605   1.000000
    5      -10.814710   1.000000
    6      -10.814710   1.000000
    7      -10.750048   1.000000
    8      -10.750047   1.000000
    9      -10.747659   1.000000
   10      -10.747658   1.000000
   11       -7.869577   1.000000
   12       -7.869577   1.000000
   13       -0.381292   1.000000
   14       -0.381292   1.000000
   15        2.042564   1.000000
   16        2.042564   1.000000
   17        2.149786   1.000000
   18        2.149786   1.000000
   19        5.748614   0.000000
   20        5.748614   0.000000
   21        7.003256   0.000000
   22        7.003256   0.000000
   23       10.442406   0.000000
   24       10.442407   0.000000
   25       10.470801   0.000000
   26       10.470801   0.000000
   27       11.259196   0.000000
   28       11.259196   0.000000
   29       14.935203   0.000000
   30       14.956803   0.000000
 
  0.2692308E+00  0.0000000E+00  0.2692308E+00  0.4166667E-02
    1      -11.250737   1.000000
    2      -11.250737   1.000000
    3      -11.215815   1.000000
    4      -11.215815   1.000000
    5      -10.815595   1.000000
    6      -10.815595   1.000000
    7      -10.749994   1.000000
    8      -10.749993   1.000000
    9      -10.746833   1.000000
   10      -10.746833   1.000000
   11       -7.779524   1.000000
   12       -7.779524   1.000000
   13       -0.580774   1.000000
   14       -0.580774   1.000000
   15        1.953709   1.000000
   16        1.953709   1.000000
   17        2.058035   1.000000
   18        2.058035   1.000000
   19        5.675739   0.000000
   20        5.675740   0.000000
   21        6.933260   0.000000
   22        6.933260   0.000000
   23       10.651598   0.000000
   24       10.651598   0.000000
   25       10.685671   0.000000
   26       10.685671   0.000000
   27       11.397526   0.000000
   28       11.397526   0.000000
   29       15.040968   0.000000
   30       15.043868   0.000000
 
  0.2820513E+00  0.0000000E+00  0.2820513E+00  0.4166667E-02
    1      -11.252282   1.000000
    2      -11.252281   1.000000
    3      -11.215038   1.000000
    4      -11.215038   1.000000
    5      -10.816442   1.000000
    6      -10.816442   1.000000
    7      -10.749960   1.000000
    8      -10.749960   1.000000
    9      -10.745941   1.000000
   10      -10.745941   1.000000
   11       -7.686776   1.000000
   12       -7.686776   1.000000
   13       -0.777237   1.000000
   14       -0.777237   1.000000
   15        1.868548   1.000000
   16        1.868548   1.000000
   17        1.970231   1.000000
   18        1.970231   1.000000
   19        5.607586   0.000000
   20        5.607586   0.000000
   21        6.848727   0.000000
   22        6.848727   0.000000
   23       10.862236   0.000000
   24       10.862236   0.000000
   25       10.902112   0.000000
   26       10.902112   0.000000
   27       11.559642   0.000000
   28       11.559642   0.000000
   29       15.151661   0.000000
   30       15.153249   0.000000
 
  0.2948718E+00  0.0000000E+00  0.2948718E+00  0.4166667E-02
    1      -11.253795   1.000000
    2      -11.253794   1.000000
    3      -11.214279   1.000000
    4      -11.214279   1.000000
    5      -10.817246   1.000000
    6      -10.817246   1.000000
    7      -10.749933   1.000000
    8      -10.749933   1.000000
    9      -10.745007   1.000000
   10      -10.745007   1.000000
   11       -7.591667   1.000000
   12       -7.591667   1.000000
   13       -0.970326   1.000000
   14       -0.970326   1.000000
   15        1.787304   1.000000
   16        1.787304   1.000000
   17        1.886579   1.000000
   18        1.886579   1.000000
   19        5.544503   0.000000
   20        5.544503   0.000000
   21        6.753680   0.000000
   22        6.753680   0.000000
   23       11.074159   0.000000
   24       11.074159   0.000000
   25       11.119713   0.000000
   26       11.119713   0.000000
   27       11.740968   0.000000
   28       11.740968   0.000000
   29       15.266712   0.000000
   30       15.267233   0.000000
 
  0.3076923E+00  0.0000000E+00  0.3076923E+00  0.4166667E-02
    1      -11.255268   1.000000
    2      -11.255268   1.000000
    3      -11.213545   1.000000
    4      -11.213545   1.000000
    5      -10.818004   1.000000
    6      -10.818004   1.000000
    7      -10.749909   1.000000
    8      -10.749908   1.000000
    9      -10.744052   1.000000
   10      -10.744052   1.000000
   11       -7.494589   1.000000
   12       -7.494589   1.000000
   13       -1.159654   1.000000
   14       -1.159654   1.000000
   15        1.710171   1.000000
   16        1.710171   1.000000
   17        1.807259   1.000000
   18        1.807259   1.000000
   19        5.486758   0.000000
   20        5.486758   0.000000
   21        6.651661   0.000000
   22        6.651661   0.000000
   23       11.287081   0.000000
   24       11.287083   0.000000
   25       11.338027   0.000000
   26       11.338027   0.000000
   27       11.937429   0.000000
   28       11.937429   0.000000
   29       15.386248   0.000000
   30       15.386333   0.000000
 
  0.3205128E+00  0.0000000E+00  0.3205128E+00  0.4166667E-02
    1      -11.256692   1.000000
    2      -11.256692   1.000000
    3      -11.212839   1.000000
    4      -11.212839   1.000000
    5      -10.818713   1.000000
    6      -10.818713   1.000000
    7      -10.749884   1.000000
    8      -10.749883   1.000000
    9      -10.743089   1.000000
   10      -10.743089   1.000000
   11       -7.395985   1.000000
   12       -7.395985   1.000000
   13       -1.344749   1.000000
   14       -1.344749   1.000000
   15        1.637323   1.000000
   16        1.637323   1.000000
   17        1.732428   1.000000
   18        1.732428   1.000000
   19        5.434569   0.000000
   20        5.434569   0.000000
   21        6.545623   0.000000
   22        6.545623   0.000000
   23       11.500699   0.000000
   24       11.500699   0.000000
   25       11.556639   0.000000
   26       11.556639   0.000000
   27       12.145522   0.000000
   28       12.145522   0.000000
   29       15.510127   0.000000
   30       15.510212   0.000000
 
  0.3333333E+00  0.0000000E+00  0.3333333E+00  0.4166667E-02
    1      -11.258059   1.000000
    2      -11.258059   1.000000
    3      -11.212169   1.000000
    4      -11.212168   1.000000
    5      -10.819373   1.000000
    6      -10.819373   1.000000
    7      -10.749860   1.000000
    8      -10.749860   1.000000
    9      -10.742132   1.000000
   10      -10.742132   1.000000
   11       -7.296391   1.000000
   12       -7.296391   1.000000
   13       -1.525067   1.000000
   14       -1.525067   1.000000
   15        1.568914   1.000000
   16        1.568914   1.000000
   17        1.662228   1.000000
   18        1.662228   1.000000
   19        5.388115   0.000000
   20        5.388115   0.000000
   21        6.437975   0.000000
   22        6.437975   0.000000
   23       11.714594   0.000000
   24       11.714594   0.000000
   25       11.775054   0.000000
   26       11.775054   0.000000
   27       12.362248   0.000000
   28       12.362248   0.000000
   29       15.637978   0.000000
   30       15.638139   0.000000
 
  0.3461538E+00  0.0000000E+00  0.3461538E+00  0.4166667E-02
    1      -11.259360   1.000000
    2      -11.259360   1.000000
    3      -11.211532   1.000000
    4      -11.211532   1.000000
    5      -10.819980   1.000000
    6      -10.819980   1.000000
    7      -10.749832   1.000000
    8      -10.749832   1.000000
    9      -10.741194   1.000000
   10      -10.741194   1.000000
   11       -7.196414   1.000000
   12       -7.196414   1.000000
   13       -1.699962   1.000000
   14       -1.699962   1.000000
   15        1.505085   1.000000
   16        1.505085   1.000000
   17        1.596787   1.000000
   18        1.596787   1.000000
   19        5.347545   0.000000
   20        5.347545   0.000000
   21        6.330651   0.000000
   22        6.330651   0.000000
   23       11.928239   0.000000
   24       11.928245   0.000000
   25       11.992694   0.000000
   26       11.992694   0.000000
   27       12.585019   0.000000
   28       12.585019   0.000000
   29       15.769524   0.000000
   30       15.769631   0.000000
 
  0.3589744E+00  0.0000000E+00  0.3589744E+00  0.4166667E-02
    1      -11.260585   1.000000
    2      -11.260585   1.000000
    3      -11.210936   1.000000
    4      -11.210936   1.000000
    5      -10.820533   1.000000
    6      -10.820533   1.000000
    7      -10.749804   1.000000